<?xml version="1.0"?>

<!-- generated on Mon Dec  8 18:05:24 2014 by SUMO sumo Version 0.12.3
<?xml version="1.0" encoding="iso-8859-1"?>

<configuration xmlns:xsi="http://www.w3.org/2001/XMLSchema-instance" xsi:noNamespaceSchemaLocation="http://sumo.sf.net/xsd/sumoConfiguration.xsd">

    <input>
        <net-file value="/home/lijiax/project_exp/experiment.net.xml"/>
        <route-files value="/home/lijiax/project_exp/vehicle15.rou.xml"/>
    </input>

    <output>
        <netstate-dump value="/home/lijiax/project_exp/vehicle15.sumo.tr"/>
        <emissions-output value="/home/lijiax/project_exp/output-emissions.xml"/>
        <tripinfo-output value="/home/lijiax/project_exp/output-tripinfos.xml"/>
        <vehroute-output value="/home/lijiax/project_exp/output-vehroutes.xml"/>
    </output>

    <time>
        <begin value="0"/>
        <end value="300"/>
    </time>

    <processing>
        <route-steps value="-1"/>
        <time-to-teleport value="-1"/>
    </processing>

    <report>
        <verbose value="true"/>
        <print-options value="false"/>
    </report>

    <random_number>
        <srand value="23423"/>
    </random_number>

    <gui_only>
        <gui-settings-file value=""/>
    </gui_only>

</configuration>
-->

<sumo-netstate>
    <timestep time="0.00">
        <edge id="R10">
            <lane id="R10_0">
                <vehicle id="f0_0" pos="7.60" speed="0.00"/>
            </lane>
            <lane id="R10_1"/>
        </edge>
        <edge id="R30">
            <lane id="R30_0">
                <vehicle id="f1_0" pos="7.60" speed="0.00"/>
            </lane>
            <lane id="R30_1"/>
        </edge>
    </timestep>
    <timestep time="1.00">
        <edge id="R10">
            <lane id="R10_0">
                <vehicle id="f0_0" pos="9.31" speed="1.71"/>
            </lane>
            <lane id="R10_1"/>
        </edge>
        <edge id="R30">
            <lane id="R30_0">
                <vehicle id="f1_0" pos="9.08" speed="1.48"/>
            </lane>
            <lane id="R30_1"/>
        </edge>
    </timestep>
    <timestep time="2.00">
        <edge id="R10">
            <lane id="R10_0">
                <vehicle id="f0_0" pos="12.95" speed="3.64"/>
            </lane>
            <lane id="R10_1"/>
        </edge>
        <edge id="R30">
            <lane id="R30_0">
                <vehicle id="f1_0" pos="13.06" speed="3.97"/>
            </lane>
            <lane id="R30_1"/>
        </edge>
    </timestep>
    <timestep time="3.00">
        <edge id="R10">
            <lane id="R10_0">
                <vehicle id="f0_0" pos="19.01" speed="6.06"/>
            </lane>
            <lane id="R10_1"/>
        </edge>
        <edge id="R30">
            <lane id="R30_0">
                <vehicle id="f1_0" pos="18.79" speed="5.73"/>
            </lane>
            <lane id="R30_1"/>
        </edge>
    </timestep>
    <timestep time="4.00">
        <edge id="R10">
            <lane id="R10_0">
                <vehicle id="f0_0" pos="27.16" speed="8.15"/>
            </lane>
            <lane id="R10_1"/>
        </edge>
        <edge id="R30">
            <lane id="R30_0">
                <vehicle id="f1_0" pos="26.05" speed="7.26"/>
            </lane>
            <lane id="R30_1"/>
        </edge>
    </timestep>
    <timestep time="5.00">
        <edge id="R10">
            <lane id="R10_0">
                <vehicle id="f0_0" pos="36.78" speed="9.62"/>
            </lane>
            <lane id="R10_1"/>
        </edge>
        <edge id="R30">
            <lane id="R30_0">
                <vehicle id="f1_0" pos="35.03" speed="8.98"/>
            </lane>
            <lane id="R30_1"/>
        </edge>
    </timestep>
    <timestep time="6.00">
        <edge id="R10">
            <lane id="R10_0">
                <vehicle id="f0_0" pos="47.92" speed="11.14"/>
            </lane>
            <lane id="R10_1"/>
        </edge>
        <edge id="R30">
            <lane id="R30_0">
                <vehicle id="f1_0" pos="46.27" speed="11.24"/>
            </lane>
            <lane id="R30_1"/>
        </edge>
    </timestep>
    <timestep time="7.00">
        <edge id="R10">
            <lane id="R10_0">
                <vehicle id="f0_0" pos="60.77" speed="12.85"/>
            </lane>
            <lane id="R10_1"/>
        </edge>
        <edge id="R30">
            <lane id="R30_0">
                <vehicle id="f1_0" pos="59.21" speed="12.93"/>
            </lane>
            <lane id="R30_1"/>
        </edge>
    </timestep>
    <timestep time="8.00">
        <edge id="R10">
            <lane id="R10_0"/>
            <lane id="R10_1">
                <vehicle id="f0_0" pos="75.47" speed="14.70"/>
            </lane>
        </edge>
        <edge id="R30">
            <lane id="R30_0"/>
            <lane id="R30_1">
                <vehicle id="f1_0" pos="73.68" speed="14.48"/>
            </lane>
        </edge>
    </timestep>
    <timestep time="9.00">
        <edge id="R10">
            <lane id="R10_0"/>
            <lane id="R10_1">
                <vehicle id="f0_0" pos="92.17" speed="16.70"/>
            </lane>
        </edge>
        <edge id="R30">
            <lane id="R30_0"/>
            <lane id="R30_1">
                <vehicle id="f1_0" pos="89.35" speed="15.67"/>
            </lane>
        </edge>
    </timestep>
    <timestep time="10.00">
        <edge id="R10">
            <lane id="R10_0"/>
            <lane id="R10_1">
                <vehicle id="f0_0" pos="110.54" speed="18.37"/>
            </lane>
        </edge>
        <edge id="R30">
            <lane id="R30_0"/>
            <lane id="R30_1">
                <vehicle id="f1_0" pos="106.37" speed="17.02"/>
            </lane>
        </edge>
    </timestep>
    <timestep time="11.00">
        <edge id="R10">
            <lane id="R10_0"/>
            <lane id="R10_1">
                <vehicle id="f0_0" pos="130.78" speed="20.24"/>
            </lane>
        </edge>
        <edge id="R30">
            <lane id="R30_0"/>
            <lane id="R30_1">
                <vehicle id="f1_0" pos="124.88" speed="18.50"/>
            </lane>
        </edge>
    </timestep>
    <timestep time="12.00">
        <edge id="R10">
            <lane id="R10_0"/>
            <lane id="R10_1">
                <vehicle id="f0_0" pos="152.60" speed="21.82"/>
            </lane>
        </edge>
        <edge id="R30">
            <lane id="R30_0"/>
            <lane id="R30_1">
                <vehicle id="f1_0" pos="144.71" speed="19.83"/>
            </lane>
        </edge>
    </timestep>
    <timestep time="13.00">
        <edge id="R10">
            <lane id="R10_0"/>
            <lane id="R10_1">
                <vehicle id="f0_0" pos="175.40" speed="22.80"/>
            </lane>
        </edge>
        <edge id="R30">
            <lane id="R30_0"/>
            <lane id="R30_1">
                <vehicle id="f1_0" pos="165.67" speed="20.96"/>
            </lane>
        </edge>
    </timestep>
    <timestep time="14.00">
        <edge id="R10">
            <lane id="R10_0"/>
            <lane id="R10_1">
                <vehicle id="f0_0" pos="199.20" speed="23.80"/>
            </lane>
        </edge>
        <edge id="R30">
            <lane id="R30_0"/>
            <lane id="R30_1">
                <vehicle id="f1_0" pos="188.10" speed="22.43"/>
            </lane>
        </edge>
    </timestep>
    <timestep time="15.00">
        <edge id="R10">
            <lane id="R10_0"/>
            <lane id="R10_1">
                <vehicle id="f0_0" pos="223.48" speed="24.28"/>
            </lane>
        </edge>
        <edge id="R30">
            <lane id="R30_0"/>
            <lane id="R30_1">
                <vehicle id="f1_0" pos="212.10" speed="24.00"/>
            </lane>
        </edge>
    </timestep>
    <timestep time="16.00">
        <edge id="R10">
            <lane id="R10_0"/>
            <lane id="R10_1">
                <vehicle id="f0_0" pos="244.18" speed="20.70"/>
            </lane>
        </edge>
        <edge id="R30">
            <lane id="R30_0"/>
            <lane id="R30_1">
                <vehicle id="f1_0" pos="234.51" speed="22.42"/>
            </lane>
        </edge>
    </timestep>
    <timestep time="17.00">
        <edge id="R10">
            <lane id="R10_0"/>
            <lane id="R10_1">
                <vehicle id="f0_0" pos="260.14" speed="15.96"/>
            </lane>
        </edge>
        <edge id="R30">
            <lane id="R30_0"/>
            <lane id="R30_1">
                <vehicle id="f1_0" pos="253.04" speed="18.53"/>
            </lane>
        </edge>
    </timestep>
    <timestep time="18.00">
        <edge id="R10">
            <lane id="R10_0"/>
            <lane id="R10_1">
                <vehicle id="f0_0" pos="272.14" speed="12.00"/>
            </lane>
        </edge>
        <edge id="R30">
            <lane id="R30_0"/>
            <lane id="R30_1">
                <vehicle id="f1_0" pos="267.76" speed="14.72"/>
            </lane>
        </edge>
    </timestep>
    <timestep time="19.00">
        <edge id="R10">
            <lane id="R10_0"/>
            <lane id="R10_1">
                <vehicle id="f0_0" pos="280.96" speed="8.82"/>
            </lane>
        </edge>
        <edge id="R30">
            <lane id="R30_0"/>
            <lane id="R30_1">
                <vehicle id="f1_0" pos="278.32" speed="10.56"/>
            </lane>
        </edge>
    </timestep>
    <timestep time="20.00">
        <edge id="R10">
            <lane id="R10_0">
                <vehicle id="f0_1" pos="7.60" speed="0.00"/>
            </lane>
            <lane id="R10_1">
                <vehicle id="f0_0" pos="287.22" speed="6.26"/>
            </lane>
        </edge>
        <edge id="R30">
            <lane id="R30_0">
                <vehicle id="f1_1" pos="7.60" speed="0.00"/>
            </lane>
            <lane id="R30_1">
                <vehicle id="f1_0" pos="285.63" speed="7.31"/>
            </lane>
        </edge>
    </timestep>
    <timestep time="21.00">
        <edge id="R10">
            <lane id="R10_0">
                <vehicle id="f0_1" pos="8.99" speed="1.39"/>
            </lane>
            <lane id="R10_1">
                <vehicle id="f0_0" pos="290.32" speed="3.10"/>
            </lane>
        </edge>
        <edge id="R30">
            <lane id="R30_0">
                <vehicle id="f1_1" pos="9.69" speed="2.09"/>
            </lane>
            <lane id="R30_1">
                <vehicle id="f1_0" pos="289.64" speed="4.01"/>
            </lane>
        </edge>
    </timestep>
    <timestep time="22.00">
        <edge id="R10">
            <lane id="R10_0">
                <vehicle id="f0_1" pos="12.23" speed="3.24"/>
            </lane>
            <lane id="R10_1">
                <vehicle id="f0_0" pos="291.56" speed="1.24"/>
            </lane>
        </edge>
        <edge id="R30">
            <lane id="R30_0">
                <vehicle id="f1_1" pos="14.09" speed="4.40"/>
            </lane>
            <lane id="R30_1">
                <vehicle id="f1_0" pos="290.77" speed="1.13"/>
            </lane>
        </edge>
    </timestep>
    <timestep time="23.00">
        <edge id="R10">
            <lane id="R10_0">
                <vehicle id="f0_1" pos="17.15" speed="4.92"/>
            </lane>
            <lane id="R10_1">
                <vehicle id="f0_0" pos="291.80" speed="0.24"/>
            </lane>
        </edge>
        <edge id="R30">
            <lane id="R30_0">
                <vehicle id="f1_1" pos="20.82" speed="6.74"/>
            </lane>
            <lane id="R30_1">
                <vehicle id="f1_0" pos="291.51" speed="0.74"/>
            </lane>
        </edge>
    </timestep>
    <timestep time="24.00">
        <edge id="R10">
            <lane id="R10_0">
                <vehicle id="f0_1" pos="23.40" speed="6.25"/>
            </lane>
            <lane id="R10_1">
                <vehicle id="f0_0" pos="291.88" speed="0.08"/>
            </lane>
        </edge>
        <edge id="R30">
            <lane id="R30_0">
                <vehicle id="f1_1" pos="29.13" speed="8.30"/>
            </lane>
            <lane id="R30_1">
                <vehicle id="f1_0" pos="291.87" speed="0.35"/>
            </lane>
        </edge>
    </timestep>
    <timestep time="25.00">
        <edge id="R10">
            <lane id="R10_0">
                <vehicle id="f0_1" pos="31.36" speed="7.96"/>
            </lane>
            <lane id="R10_1">
                <vehicle id="f0_0" pos="291.94" speed="0.07"/>
            </lane>
        </edge>
        <edge id="R30">
            <lane id="R30_0">
                <vehicle id="f1_1" pos="39.18" speed="10.05"/>
            </lane>
            <lane id="R30_1">
                <vehicle id="f1_0" pos="291.91" speed="0.04"/>
            </lane>
        </edge>
    </timestep>
    <timestep time="26.00">
        <edge id="R10">
            <lane id="R10_0">
                <vehicle id="f0_1" pos="40.91" speed="9.55"/>
            </lane>
            <lane id="R10_1">
                <vehicle id="f0_0" pos="291.94" speed="0.00"/>
            </lane>
        </edge>
        <edge id="R30">
            <lane id="R30_0">
                <vehicle id="f1_1" pos="51.26" speed="12.08"/>
            </lane>
            <lane id="R30_1">
                <vehicle id="f1_0" pos="291.95" speed="0.04"/>
            </lane>
        </edge>
    </timestep>
    <timestep time="27.00">
        <edge id="R10">
            <lane id="R10_0">
                <vehicle id="f0_1" pos="52.12" speed="11.20"/>
            </lane>
            <lane id="R10_1">
                <vehicle id="f0_0" pos="291.94" speed="0.00"/>
            </lane>
        </edge>
        <edge id="R30">
            <lane id="R30_0">
                <vehicle id="f1_1" pos="65.20" speed="13.94"/>
            </lane>
            <lane id="R30_1">
                <vehicle id="f1_0" pos="291.95" speed="0.00"/>
            </lane>
        </edge>
    </timestep>
    <timestep time="28.00">
        <edge id="R10">
            <lane id="R10_0">
                <vehicle id="f0_1" pos="64.46" speed="12.34"/>
            </lane>
            <lane id="R10_1">
                <vehicle id="f0_0" pos="291.94" speed="0.00"/>
            </lane>
        </edge>
        <edge id="R30">
            <lane id="R30_0"/>
            <lane id="R30_1">
                <vehicle id="f1_1" pos="81.05" speed="15.85"/>
                <vehicle id="f1_0" pos="291.95" speed="0.00"/>
            </lane>
        </edge>
    </timestep>
    <timestep time="29.00">
        <edge id="R10">
            <lane id="R10_0"/>
            <lane id="R10_1">
                <vehicle id="f0_1" pos="78.86" speed="14.40"/>
                <vehicle id="f0_0" pos="291.94" speed="0.00"/>
            </lane>
        </edge>
        <edge id="R30">
            <lane id="R30_0"/>
            <lane id="R30_1">
                <vehicle id="f1_1" pos="98.71" speed="17.66"/>
                <vehicle id="f1_0" pos="291.95" speed="0.00"/>
            </lane>
        </edge>
    </timestep>
    <timestep time="30.00">
        <edge id="R10">
            <lane id="R10_0"/>
            <lane id="R10_1">
                <vehicle id="f0_1" pos="95.28" speed="16.42"/>
                <vehicle id="f0_0" pos="291.94" speed="0.00"/>
            </lane>
        </edge>
        <edge id="R30">
            <lane id="R30_0"/>
            <lane id="R30_1">
                <vehicle id="f1_1" pos="117.63" speed="18.93"/>
                <vehicle id="f1_0" pos="291.95" speed="0.00"/>
            </lane>
        </edge>
    </timestep>
    <timestep time="31.00">
        <edge id="R10">
            <lane id="R10_0"/>
            <lane id="R10_1">
                <vehicle id="f0_1" pos="113.40" speed="18.13"/>
                <vehicle id="f0_0" pos="291.94" speed="0.00"/>
            </lane>
        </edge>
        <edge id="R30">
            <lane id="R30_0"/>
            <lane id="R30_1">
                <vehicle id="f1_1" pos="137.84" speed="20.20"/>
                <vehicle id="f1_0" pos="291.95" speed="0.00"/>
            </lane>
        </edge>
    </timestep>
    <timestep time="32.00">
        <edge id="R10">
            <lane id="R10_0"/>
            <lane id="R10_1">
                <vehicle id="f0_1" pos="132.89" speed="19.48"/>
                <vehicle id="f0_0" pos="291.94" speed="0.00"/>
            </lane>
        </edge>
        <edge id="R30">
            <lane id="R30_0"/>
            <lane id="R30_1">
                <vehicle id="f1_1" pos="159.43" speed="21.60"/>
                <vehicle id="f1_0" pos="291.95" speed="0.00"/>
            </lane>
        </edge>
    </timestep>
    <timestep time="33.00">
        <edge id="R10">
            <lane id="R10_0"/>
            <lane id="R10_1">
                <vehicle id="f0_1" pos="153.72" speed="20.83"/>
                <vehicle id="f0_0" pos="291.94" speed="0.00"/>
            </lane>
        </edge>
        <edge id="R30">
            <lane id="R30_0"/>
            <lane id="R30_1">
                <vehicle id="f1_1" pos="182.51" speed="23.08"/>
                <vehicle id="f1_0" pos="291.95" speed="0.00"/>
            </lane>
        </edge>
    </timestep>
    <timestep time="34.00">
        <edge id="R10">
            <lane id="R10_0"/>
            <lane id="R10_1">
                <vehicle id="f0_1" pos="176.36" speed="22.64"/>
                <vehicle id="f0_0" pos="291.94" speed="0.00"/>
            </lane>
        </edge>
        <edge id="R30">
            <lane id="R30_0"/>
            <lane id="R30_1">
                <vehicle id="f1_1" pos="207.24" speed="24.73"/>
                <vehicle id="f1_0" pos="291.95" speed="0.00"/>
            </lane>
        </edge>
    </timestep>
    <timestep time="35.00">
        <edge id="R10">
            <lane id="R10_0"/>
            <lane id="R10_1">
                <vehicle id="f0_1" pos="200.23" speed="23.87"/>
                <vehicle id="f0_0" pos="291.94" speed="0.00"/>
            </lane>
        </edge>
        <edge id="R30">
            <lane id="R30_0"/>
            <lane id="R30_1">
                <vehicle id="f1_1" pos="229.05" speed="21.80"/>
                <vehicle id="f1_0" pos="291.95" speed="0.00"/>
            </lane>
        </edge>
    </timestep>
    <timestep time="36.00">
        <edge id="R10">
            <lane id="R10_0"/>
            <lane id="R10_1">
                <vehicle id="f0_1" pos="223.01" speed="22.78"/>
                <vehicle id="f0_0" pos="291.94" speed="0.00"/>
            </lane>
        </edge>
        <edge id="R30">
            <lane id="R30_0"/>
            <lane id="R30_1">
                <vehicle id="f1_1" pos="246.49" speed="17.44"/>
                <vehicle id="f1_0" pos="291.95" speed="0.00"/>
            </lane>
        </edge>
    </timestep>
    <timestep time="37.00">
        <edge id="R10">
            <lane id="R10_0"/>
            <lane id="R10_1">
                <vehicle id="f0_1" pos="241.54" speed="18.53"/>
                <vehicle id="f0_0" pos="291.94" speed="0.00"/>
            </lane>
        </edge>
        <edge id="R30">
            <lane id="R30_0"/>
            <lane id="R30_1">
                <vehicle id="f1_1" pos="260.59" speed="14.10"/>
                <vehicle id="f1_0" pos="291.95" speed="0.00"/>
            </lane>
        </edge>
    </timestep>
    <timestep time="38.00">
        <edge id="R10">
            <lane id="R10_0"/>
            <lane id="R10_1">
                <vehicle id="f0_1" pos="256.49" speed="14.95"/>
                <vehicle id="f0_0" pos="291.94" speed="0.00"/>
            </lane>
        </edge>
        <edge id="R30">
            <lane id="R30_0"/>
            <lane id="R30_1">
                <vehicle id="f1_1" pos="270.91" speed="10.32"/>
                <vehicle id="f1_0" pos="291.95" speed="0.00"/>
            </lane>
        </edge>
    </timestep>
    <timestep time="39.00">
        <edge id="R10">
            <lane id="R10_0"/>
            <lane id="R10_1">
                <vehicle id="f0_1" pos="267.64" speed="11.15"/>
                <vehicle id="f0_0" pos="291.94" speed="0.00"/>
            </lane>
        </edge>
        <edge id="R30">
            <lane id="R30_0"/>
            <lane id="R30_1">
                <vehicle id="f1_1" pos="277.50" speed="6.59"/>
                <vehicle id="f1_0" pos="291.95" speed="0.00"/>
            </lane>
        </edge>
    </timestep>
    <timestep time="40.00">
        <edge id="R10">
            <lane id="R10_0">
                <vehicle id="f0_2" pos="7.60" speed="0.00"/>
            </lane>
            <lane id="R10_1">
                <vehicle id="f0_1" pos="275.42" speed="7.78"/>
                <vehicle id="f0_0" pos="291.94" speed="0.00"/>
            </lane>
        </edge>
        <edge id="R30">
            <lane id="R30_0">
                <vehicle id="f1_2" pos="7.60" speed="0.00"/>
            </lane>
            <lane id="R30_1">
                <vehicle id="f1_1" pos="281.03" speed="3.53"/>
                <vehicle id="f1_0" pos="291.95" speed="0.00"/>
            </lane>
        </edge>
    </timestep>
    <timestep time="41.00">
        <edge id="R10">
            <lane id="R10_0">
                <vehicle id="f0_2" pos="10.15" speed="2.55"/>
            </lane>
            <lane id="R10_1">
                <vehicle id="f0_1" pos="280.52" speed="5.11"/>
                <vehicle id="f0_0" pos="291.94" speed="0.00"/>
            </lane>
        </edge>
        <edge id="R30">
            <lane id="R30_0">
                <vehicle id="f1_2" pos="9.60" speed="2.00"/>
            </lane>
            <lane id="R30_1">
                <vehicle id="f1_1" pos="282.45" speed="1.42"/>
                <vehicle id="f1_0" pos="291.95" speed="0.00"/>
            </lane>
        </edge>
    </timestep>
    <timestep time="42.00">
        <edge id="R10">
            <lane id="R10_0">
                <vehicle id="f0_2" pos="14.11" speed="3.96"/>
            </lane>
            <lane id="R10_1">
                <vehicle id="f0_1" pos="283.05" speed="2.52"/>
                <vehicle id="f0_0" pos="291.94" speed="0.00"/>
            </lane>
        </edge>
        <edge id="R30">
            <lane id="R30_0">
                <vehicle id="f1_2" pos="13.94" speed="4.34"/>
            </lane>
            <lane id="R30_1">
                <vehicle id="f1_1" pos="283.77" speed="1.32"/>
                <vehicle id="f1_0" pos="291.95" speed="0.00"/>
            </lane>
        </edge>
    </timestep>
    <timestep time="43.00">
        <edge id="R10">
            <lane id="R10_0">
                <vehicle id="f0_2" pos="20.07" speed="5.97"/>
            </lane>
            <lane id="R10_1">
                <vehicle id="f0_1" pos="283.86" speed="0.81"/>
                <vehicle id="f0_0" pos="291.94" speed="0.00"/>
            </lane>
        </edge>
        <edge id="R30">
            <lane id="R30_0">
                <vehicle id="f1_2" pos="20.39" speed="6.45"/>
            </lane>
            <lane id="R30_1">
                <vehicle id="f1_1" pos="284.22" speed="0.45"/>
                <vehicle id="f1_0" pos="291.95" speed="0.00"/>
            </lane>
        </edge>
    </timestep>
    <timestep time="44.00">
        <edge id="R10">
            <lane id="R10_0">
                <vehicle id="f0_2" pos="27.68" speed="7.61"/>
            </lane>
            <lane id="R10_1">
                <vehicle id="f0_1" pos="284.18" speed="0.33"/>
                <vehicle id="f0_0" pos="291.94" speed="0.00"/>
            </lane>
        </edge>
        <edge id="R30">
            <lane id="R30_0">
                <vehicle id="f1_2" pos="28.23" speed="7.84"/>
            </lane>
            <lane id="R30_1">
                <vehicle id="f1_1" pos="284.38" speed="0.16"/>
                <vehicle id="f1_0" pos="291.95" speed="0.00"/>
            </lane>
        </edge>
    </timestep>
    <timestep time="45.00">
        <edge id="R10">
            <lane id="R10_0">
                <vehicle id="f0_2" pos="36.62" speed="8.94"/>
            </lane>
            <lane id="R10_1">
                <vehicle id="f0_1" pos="284.37" speed="0.19"/>
                <vehicle id="f0_0" pos="291.94" speed="0.00"/>
            </lane>
        </edge>
        <edge id="R30">
            <lane id="R30_0">
                <vehicle id="f1_2" pos="37.28" speed="9.06"/>
            </lane>
            <lane id="R30_1">
                <vehicle id="f1_1" pos="284.44" speed="0.06"/>
                <vehicle id="f1_0" pos="291.95" speed="0.00"/>
            </lane>
        </edge>
    </timestep>
    <timestep time="46.00">
        <edge id="R10">
            <lane id="R10_0">
                <vehicle id="f0_2" pos="47.31" speed="10.69"/>
            </lane>
            <lane id="R10_1">
                <vehicle id="f0_1" pos="284.43" speed="0.06"/>
                <vehicle id="f0_0" pos="291.94" speed="0.00"/>
            </lane>
        </edge>
        <edge id="R30">
            <lane id="R30_0">
                <vehicle id="f1_2" pos="47.74" speed="10.45"/>
            </lane>
            <lane id="R30_1">
                <vehicle id="f1_1" pos="284.44" speed="0.00"/>
                <vehicle id="f1_0" pos="291.95" speed="0.00"/>
            </lane>
        </edge>
    </timestep>
    <timestep time="47.00">
        <edge id="R10">
            <lane id="R10_0">
                <vehicle id="f0_2" pos="59.69" speed="12.38"/>
            </lane>
            <lane id="R10_1">
                <vehicle id="f0_1" pos="284.44" speed="0.01"/>
                <vehicle id="f0_0" pos="291.94" speed="0.00"/>
            </lane>
        </edge>
        <edge id="R30">
            <lane id="R30_0">
                <vehicle id="f1_2" pos="60.39" speed="12.65"/>
            </lane>
            <lane id="R30_1">
                <vehicle id="f1_1" pos="284.44" speed="0.00"/>
                <vehicle id="f1_0" pos="291.95" speed="0.00"/>
            </lane>
        </edge>
    </timestep>
    <timestep time="48.00">
        <edge id="R10">
            <lane id="R10_0"/>
            <lane id="R10_1">
                <vehicle id="f0_2" pos="73.81" speed="14.11"/>
                <vehicle id="f0_1" pos="284.44" speed="0.00"/>
                <vehicle id="f0_0" pos="291.94" speed="0.00"/>
            </lane>
        </edge>
        <edge id="R30">
            <lane id="R30_0">
                <vehicle id="f1_2" pos="74.33" speed="13.94"/>
            </lane>
            <lane id="R30_1">
                <vehicle id="f1_1" pos="284.44" speed="0.00"/>
                <vehicle id="f1_0" pos="291.95" speed="0.00"/>
            </lane>
        </edge>
    </timestep>
    <timestep time="49.00">
        <edge id="R10">
            <lane id="R10_0"/>
            <lane id="R10_1">
                <vehicle id="f0_2" pos="89.15" speed="15.35"/>
                <vehicle id="f0_1" pos="284.44" speed="0.00"/>
                <vehicle id="f0_0" pos="291.94" speed="0.00"/>
            </lane>
        </edge>
        <edge id="R30">
            <lane id="R30_0"/>
            <lane id="R30_1">
                <vehicle id="f1_2" pos="89.88" speed="15.56"/>
                <vehicle id="f1_1" pos="284.44" speed="0.00"/>
                <vehicle id="f1_0" pos="291.95" speed="0.00"/>
            </lane>
        </edge>
    </timestep>
    <timestep time="50.00">
        <edge id="R10">
            <lane id="R10_0"/>
            <lane id="R10_1">
                <vehicle id="f0_2" pos="106.22" speed="17.06"/>
                <vehicle id="f0_1" pos="284.44" speed="0.00"/>
                <vehicle id="f0_0" pos="291.94" speed="0.00"/>
            </lane>
        </edge>
        <edge id="R30">
            <lane id="R30_0"/>
            <lane id="R30_1">
                <vehicle id="f1_2" pos="107.11" speed="17.22"/>
                <vehicle id="f1_1" pos="284.44" speed="0.00"/>
                <vehicle id="f1_0" pos="291.95" speed="0.00"/>
            </lane>
        </edge>
    </timestep>
    <timestep time="51.00">
        <edge id="R10">
            <lane id="R10_0"/>
            <lane id="R10_1">
                <vehicle id="f0_2" pos="124.69" speed="18.48"/>
                <vehicle id="f0_1" pos="284.44" speed="0.00"/>
                <vehicle id="f0_0" pos="291.94" speed="0.00"/>
            </lane>
        </edge>
        <edge id="R30">
            <lane id="R30_0"/>
            <lane id="R30_1">
                <vehicle id="f1_2" pos="126.18" speed="19.08"/>
                <vehicle id="f1_1" pos="284.44" speed="0.00"/>
                <vehicle id="f1_0" pos="291.95" speed="0.00"/>
            </lane>
        </edge>
    </timestep>
    <timestep time="52.00">
        <edge id="R10">
            <lane id="R10_0"/>
            <lane id="R10_1">
                <vehicle id="f0_2" pos="144.88" speed="20.18"/>
                <vehicle id="f0_1" pos="284.44" speed="0.00"/>
                <vehicle id="f0_0" pos="291.94" speed="0.00"/>
            </lane>
        </edge>
        <edge id="R30">
            <lane id="R30_0"/>
            <lane id="R30_1">
                <vehicle id="f1_2" pos="146.86" speed="20.68"/>
                <vehicle id="f1_1" pos="284.44" speed="0.00"/>
                <vehicle id="f1_0" pos="291.95" speed="0.00"/>
            </lane>
        </edge>
    </timestep>
    <timestep time="53.00">
        <edge id="R10">
            <lane id="R10_0"/>
            <lane id="R10_1">
                <vehicle id="f0_2" pos="166.49" speed="21.62"/>
                <vehicle id="f0_1" pos="284.44" speed="0.00"/>
                <vehicle id="f0_0" pos="291.94" speed="0.00"/>
            </lane>
        </edge>
        <edge id="R30">
            <lane id="R30_0"/>
            <lane id="R30_1">