<?xml version="1.0"?>

<!-- generated on Mon Dec  8 18:05:29 2014 by SUMO sumo Version 0.12.3
<?xml version="1.0" encoding="iso-8859-1"?>

<configuration xmlns:xsi="http://www.w3.org/2001/XMLSchema-instance" xsi:noNamespaceSchemaLocation="http://sumo.sf.net/xsd/sumoConfiguration.xsd">

    <input>
        <net-file value="/home/lijiax/project_exp/experiment.net.xml"/>
        <route-files value="/home/lijiax/project_exp/vehicle10.rou.xml"/>
    </input>

    <output>
        <netstate-dump value="/home/lijiax/project_exp/vehicle10.sumo.tr"/>
        <emissions-output value="/home/lijiax/project_exp/output-emissions.xml"/>
        <tripinfo-output value="/home/lijiax/project_exp/output-tripinfos.xml"/>
        <vehroute-output value="/home/lijiax/project_exp/output-vehroutes.xml"/>
    </output>

    <time>
        <begin value="0"/>
        <end value="300"/>
    </time>

    <processing>
        <route-steps value="-1"/>
        <time-to-teleport value="-1"/>
    </processing>

    <report>
        <verbose value="true"/>
        <print-options value="false"/>
    </report>

    <random_number>
        <srand value="23423"/>
    </random_number>

    <gui_only>
        <gui-settings-file value=""/>
    </gui_only>

</configuration>
-->

<sumo-netstate>
    <timestep time="0.00">
        <edge id="R10">
            <lane id="R10_0">
                <vehicle id="f0_0" pos="7.60" speed="0.00"/>
            </lane>
            <lane id="R10_1"/>
        </edge>
        <edge id="R30">
            <lane id="R30_0">
                <vehicle id="f1_0" pos="7.60" speed="0.00"/>
            </lane>
            <lane id="R30_1"/>
        </edge>
    </timestep>
    <timestep time="1.00">
        <edge id="R10">
            <lane id="R10_0">
                <vehicle id="f0_0" pos="9.31" speed="1.71"/>
            </lane>
            <lane id="R10_1"/>
        </edge>
        <edge id="R30">
            <lane id="R30_0">
                <vehicle id="f1_0" pos="9.08" speed="1.48"/>
            </lane>
            <lane id="R30_1"/>
        </edge>
    </timestep>
    <timestep time="2.00">
        <edge id="R10">
            <lane id="R10_0">
                <vehicle id="f0_0" pos="12.95" speed="3.64"/>
            </lane>
            <lane id="R10_1"/>
        </edge>
        <edge id="R30">
            <lane id="R30_0">
                <vehicle id="f1_0" pos="13.06" speed="3.97"/>
            </lane>
            <lane id="R30_1"/>
        </edge>
    </timestep>
    <timestep time="3.00">
        <edge id="R10">
            <lane id="R10_0">
                <vehicle id="f0_0" pos="19.01" speed="6.06"/>
            </lane>
            <lane id="R10_1"/>
        </edge>
        <edge id="R30">
            <lane id="R30_0">
                <vehicle id="f1_0" pos="18.79" speed="5.73"/>
            </lane>
            <lane id="R30_1"/>
        </edge>
    </timestep>
    <timestep time="4.00">
        <edge id="R10">
            <lane id="R10_0">
                <vehicle id="f0_0" pos="27.16" speed="8.15"/>
            </lane>
            <lane id="R10_1"/>
        </edge>
        <edge id="R30">
            <lane id="R30_0">
                <vehicle id="f1_0" pos="26.05" speed="7.26"/>
            </lane>
            <lane id="R30_1"/>
        </edge>
    </timestep>
    <timestep time="5.00">
        <edge id="R10">
            <lane id="R10_0">
                <vehicle id="f0_0" pos="36.78" speed="9.62"/>
            </lane>
            <lane id="R10_1"/>
        </edge>
        <edge id="R30">
            <lane id="R30_0">
                <vehicle id="f1_0" pos="35.03" speed="8.98"/>
            </lane>
            <lane id="R30_1"/>
        </edge>
    </timestep>
    <timestep time="6.00">
        <edge id="R10">
            <lane id="R10_0">
                <vehicle id="f0_0" pos="47.92" speed="11.14"/>
            </lane>
            <lane id="R10_1"/>
        </edge>
        <edge id="R30">
            <lane id="R30_0">
                <vehicle id="f1_0" pos="46.27" speed="11.24"/>
            </lane>
            <lane id="R30_1"/>
        </edge>
    </timestep>
    <timestep time="7.00">
        <edge id="R10">
            <lane id="R10_0">
                <vehicle id="f0_0" pos="60.77" speed="12.85"/>
            </lane>
            <lane id="R10_1"/>
        </edge>
        <edge id="R30">
            <lane id="R30_0">
                <vehicle id="f1_0" pos="59.21" speed="12.93"/>
            </lane>
            <lane id="R30_1"/>
        </edge>
    </timestep>
    <timestep time="8.00">
        <edge id="R10">
            <lane id="R10_0"/>
            <lane id="R10_1">
                <vehicle id="f0_0" pos="75.47" speed="14.70"/>
            </lane>
        </edge>
        <edge id="R30">
            <lane id="R30_0"/>
            <lane id="R30_1">
                <vehicle id="f1_0" pos="73.68" speed="14.48"/>
            </lane>
        </edge>
    </timestep>
    <timestep time="9.00">
        <edge id="R10">
            <lane id="R10_0"/>
            <lane id="R10_1">
                <vehicle id="f0_0" pos="92.17" speed="16.70"/>
            </lane>
        </edge>
        <edge id="R30">
            <lane id="R30_0"/>
            <lane id="R30_1">
                <vehicle id="f1_0" pos="89.35" speed="15.67"/>
            </lane>
        </edge>
    </timestep>
    <timestep time="10.00">
        <edge id="R10">
            <lane id="R10_0"/>
            <lane id="R10_1">
                <vehicle id="f0_0" pos="110.54" speed="18.37"/>
            </lane>
        </edge>
        <edge id="R30">
            <lane id="R30_0"/>
            <lane id="R30_1">
                <vehicle id="f1_0" pos="106.37" speed="17.02"/>
            </lane>
        </edge>
    </timestep>
    <timestep time="11.00">
        <edge id="R10">
            <lane id="R10_0"/>
            <lane id="R10_1">
                <vehicle id="f0_0" pos="130.78" speed="20.24"/>
            </lane>
        </edge>
        <edge id="R30">
            <lane id="R30_0"/>
            <lane id="R30_1">
                <vehicle id="f1_0" pos="124.88" speed="18.50"/>
            </lane>
        </edge>
    </timestep>
    <timestep time="12.00">
        <edge id="R10">
            <lane id="R10_0"/>
            <lane id="R10_1">
                <vehicle id="f0_0" pos="152.60" speed="21.82"/>
            </lane>
        </edge>
        <edge id="R30">
            <lane id="R30_0"/>
            <lane id="R30_1">
                <vehicle id="f1_0" pos="144.71" speed="19.83"/>
            </lane>
        </edge>
    </timestep>
    <timestep time="13.00">
        <edge id="R10">
            <lane id="R10_0"/>
            <lane id="R10_1">
                <vehicle id="f0_0" pos="175.40" speed="22.80"/>
            </lane>
        </edge>
        <edge id="R30">
            <lane id="R30_0"/>
            <lane id="R30_1">
                <vehicle id="f1_0" pos="165.67" speed="20.96"/>
            </lane>
        </edge>
    </timestep>
    <timestep time="14.00">
        <edge id="R10">
            <lane id="R10_0"/>
            <lane id="R10_1">
                <vehicle id="f0_0" pos="199.20" speed="23.80"/>
            </lane>
        </edge>
        <edge id="R30">
            <lane id="R30_0"/>
            <lane id="R30_1">
                <vehicle id="f1_0" pos="188.10" speed="22.43"/>
            </lane>
        </edge>
    </timestep>
    <timestep time="15.00">
        <edge id="R10">
            <lane id="R10_0"/>
            <lane id="R10_1">
                <vehicle id="f0_0" pos="223.48" speed="24.28"/>
            </lane>
        </edge>
        <edge id="R30">
            <lane id="R30_0"/>
            <lane id="R30_1">
                <vehicle id="f1_0" pos="212.10" speed="24.00"/>
            </lane>
        </edge>
    </timestep>
    <timestep time="16.00">
        <edge id="R10">
            <lane id="R10_0"/>
            <lane id="R10_1">
                <vehicle id="f0_0" pos="244.18" speed="20.70"/>
            </lane>
        </edge>
        <edge id="R30">
            <lane id="R30_0"/>
            <lane id="R30_1">
                <vehicle id="f1_0" pos="234.51" speed="22.42"/>
            </lane>
        </edge>
    </timestep>
    <timestep time="17.00">
        <edge id="R10">
            <lane id="R10_0"/>
            <lane id="R10_1">
                <vehicle id="f0_0" pos="260.14" speed="15.96"/>
            </lane>
        </edge>
        <edge id="R30">
            <lane id="R30_0"/>
            <lane id="R30_1">
                <vehicle id="f1_0" pos="253.04" speed="18.53"/>
            </lane>
        </edge>
    </timestep>
    <timestep time="18.00">
        <edge id="R10">
            <lane id="R10_0"/>
            <lane id="R10_1">
                <vehicle id="f0_0" pos="272.14" speed="12.00"/>
            </lane>
        </edge>
        <edge id="R30">
            <lane id="R30_0"/>
            <lane id="R30_1">
                <vehicle id="f1_0" pos="267.76" speed="14.72"/>
            </lane>
        </edge>
    </timestep>
    <timestep time="19.00">
        <edge id="R10">
            <lane id="R10_0"/>
            <lane id="R10_1">
                <vehicle id="f0_0" pos="280.96" speed="8.82"/>
            </lane>
        </edge>
        <edge id="R30">
            <lane id="R30_0"/>
            <lane id="R30_1">
                <vehicle id="f1_0" pos="278.32" speed="10.56"/>
            </lane>
        </edge>
    </timestep>
    <timestep time="20.00">
        <edge id="R10">
            <lane id="R10_0"/>
            <lane id="R10_1">
                <vehicle id="f0_0" pos="287.22" speed="6.26"/>
            </lane>
        </edge>
        <edge id="R30">
            <lane id="R30_0"/>
            <lane id="R30_1">
                <vehicle id="f1_0" pos="285.63" speed="7.31"/>
            </lane>
        </edge>
    </timestep>
    <timestep time="21.00">
        <edge id="R10">
            <lane id="R10_0"/>
            <lane id="R10_1">
                <vehicle id="f0_0" pos="290.14" speed="2.92"/>
            </lane>
        </edge>
        <edge id="R30">
            <lane id="R30_0"/>
            <lane id="R30_1">
                <vehicle id="f1_0" pos="288.73" speed="3.11"/>
            </lane>
        </edge>
    </timestep>
    <timestep time="22.00">
        <edge id="R10">
            <lane id="R10_0"/>
            <lane id="R10_1">
                <vehicle id="f0_0" pos="291.48" speed="1.34"/>
            </lane>
        </edge>
        <edge id="R30">
            <lane id="R30_0"/>
            <lane id="R30_1">
                <vehicle id="f1_0" pos="290.97" speed="2.23"/>
            </lane>
        </edge>
    </timestep>
    <timestep time="23.00">
        <edge id="R10">
            <lane id="R10_0"/>
            <lane id="R10_1">
                <vehicle id="f0_0" pos="291.89" speed="0.41"/>
            </lane>
        </edge>
        <edge id="R30">
            <lane id="R30_0"/>
            <lane id="R30_1">
                <vehicle id="f1_0" pos="291.61" speed="0.64"/>
            </lane>
        </edge>
    </timestep>
    <timestep time="24.00">
        <edge id="R10">
            <lane id="R10_0"/>
            <lane id="R10_1">
                <vehicle id="f0_0" pos="291.94" speed="0.05"/>
            </lane>
        </edge>
        <edge id="R30">
            <lane id="R30_0"/>
            <lane id="R30_1">
                <vehicle id="f1_0" pos="291.80" speed="0.20"/>
            </lane>
        </edge>
    </timestep>
    <timestep time="25.00">
        <edge id="R10">
            <lane id="R10_0"/>
            <lane id="R10_1">
                <vehicle id="f0_0" pos="291.94" speed="0.00"/>
            </lane>
        </edge>
        <edge id="R30">
            <lane id="R30_0"/>
            <lane id="R30_1">
                <vehicle id="f1_0" pos="291.90" speed="0.10"/>
            </lane>
        </edge>
    </timestep>
    <timestep time="26.00">
        <edge id="R10">
            <lane id="R10_0"/>
            <lane id="R10_1">
                <vehicle id="f0_0" pos="291.94" speed="0.00"/>
            </lane>
        </edge>
        <edge id="R30">
            <lane id="R30_0"/>
            <lane id="R30_1">
                <vehicle id="f1_0" pos="291.93" speed="0.04"/>
            </lane>
        </edge>
    </timestep>
    <timestep time="27.00">
        <edge id="R10">
            <lane id="R10_0"/>
            <lane id="R10_1">
                <vehicle id="f0_0" pos="291.94" speed="0.00"/>
            </lane>
        </edge>
        <edge id="R30">
            <lane id="R30_0"/>
            <lane id="R30_1">
                <vehicle id="f1_0" pos="291.94" speed="0.01"/>
            </lane>
        </edge>
    </timestep>
    <timestep time="28.00">
        <edge id="R10">
            <lane id="R10_0"/>
            <lane id="R10_1">
                <vehicle id="f0_0" pos="291.94" speed="0.00"/>
            </lane>
        </edge>
        <edge id="R30">
            <lane id="R30_0"/>
            <lane id="R30_1">
                <vehicle id="f1_0" pos="291.94" speed="0.00"/>
            </lane>
        </edge>
    </timestep>
    <timestep time="29.00">
        <edge id="R10">
            <lane id="R10_0"/>
            <lane id="R10_1">
                <vehicle id="f0_0" pos="291.94" speed="0.00"/>
            </lane>
        </edge>
        <edge id="R30">
            <lane id="R30_0"/>
            <lane id="R30_1">
                <vehicle id="f1_0" pos="291.94" speed="0.00"/>
            </lane>
        </edge>
    </timestep>
    <timestep time="30.00">
        <edge id="R10">
            <lane id="R10_0">
                <vehicle id="f0_1" pos="7.60" speed="0.00"/>
            </lane>
            <lane id="R10_1">
                <vehicle id="f0_0" pos="291.94" speed="0.00"/>
            </lane>
        </edge>
        <edge id="R30">
            <lane id="R30_0">
                <vehicle id="f1_1" pos="7.60" speed="0.00"/>
            </lane>
            <lane id="R30_1">
                <vehicle id="f1_0" pos="291.94" speed="0.00"/>
            </lane>
        </edge>
    </timestep>
    <timestep time="31.00">
        <edge id="R10">
            <lane id="R10_0">
                <vehicle id="f0_1" pos="9.40" speed="1.80"/>
            </lane>
            <lane id="R10_1">
                <vehicle id="f0_0" pos="291.94" speed="0.00"/>
            </lane>
        </edge>
        <edge id="R30">
            <lane id="R30_0">
                <vehicle id="f1_1" pos="9.97" speed="2.37"/>
            </lane>
            <lane id="R30_1">
                <vehicle id="f1_0" pos="291.94" speed="0.00"/>
            </lane>
        </edge>
    </timestep>
    <timestep time="32.00">
        <edge id="R10">
            <lane id="R10_0">
                <vehicle id="f0_1" pos="13.06" speed="3.66"/>
            </lane>
            <lane id="R10_1">
                <vehicle id="f0_0" pos="291.94" speed="0.00"/>
            </lane>
        </edge>
        <edge id="R30">
            <lane id="R30_0">
                <vehicle id="f1_1" pos="14.52" speed="4.55"/>
            </lane>
            <lane id="R30_1">
                <vehicle id="f1_0" pos="291.94" speed="0.00"/>
            </lane>
        </edge>
    </timestep>
    <timestep time="33.00">
        <edge id="R10">
            <lane id="R10_0">
                <vehicle id="f0_1" pos="18.01" speed="4.95"/>
            </lane>
            <lane id="R10_1">
                <vehicle id="f0_0" pos="291.94" speed="0.00"/>
            </lane>
        </edge>
        <edge id="R30">
            <lane id="R30_0">
                <vehicle id="f1_1" pos="21.28" speed="6.77"/>
            </lane>
            <lane id="R30_1">
                <vehicle id="f1_0" pos="291.94" speed="0.00"/>
            </lane>
        </edge>
    </timestep>
    <timestep time="34.00">
        <edge id="R10">
            <lane id="R10_0">
                <vehicle id="f0_1" pos="24.72" speed="6.71"/>
            </lane>
            <lane id="R10_1">
                <vehicle id="f0_0" pos="291.94" speed="0.00"/>
            </lane>
        </edge>
        <edge id="R30">
            <lane id="R30_0">
                <vehicle id="f1_1" pos="30.30" speed="9.02"/>
            </lane>
            <lane id="R30_1">
                <vehicle id="f1_0" pos="291.94" speed="0.00"/>
            </lane>
        </edge>
    </timestep>
    <timestep time="35.00">
        <edge id="R10">
            <lane id="R10_0">
                <vehicle id="f0_1" pos="33.68" speed="8.97"/>
            </lane>
            <lane id="R10_1">
                <vehicle id="f0_0" pos="291.94" speed="0.00"/>
            </lane>
        </edge>
        <edge id="R30">
            <lane id="R30_0">
                <vehicle id="f1_1" pos="41.53" speed="11.23"/>
            </lane>
            <lane id="R30_1">
                <vehicle id="f1_0" pos="291.94" speed="0.00"/>
            </lane>
        </edge>
    </timestep>
    <timestep time="36.00">
        <edge id="R10">
            <lane id="R10_0">
                <vehicle id="f0_1" pos="44.69" speed="11.00"/>
            </lane>
            <lane id="R10_1">
                <vehicle id="f0_0" pos="291.94" speed="0.00"/>
            </lane>
        </edge>
        <edge id="R30">
            <lane id="R30_0">
                <vehicle id="f1_1" pos="54.64" speed="13.11"/>
            </lane>
            <lane id="R30_1">
                <vehicle id="f1_0" pos="291.94" speed="0.00"/>
            </lane>
        </edge>
    </timestep>
    <timestep time="37.00">
        <edge id="R10">
            <lane id="R10_0">
                <vehicle id="f0_1" pos="57.47" speed="12.78"/>
            </lane>
            <lane id="R10_1">
                <vehicle id="f0_0" pos="291.94" speed="0.00"/>
            </lane>
        </edge>
        <edge id="R30">
            <lane id="R30_0"/>
            <lane id="R30_1">
                <vehicle id="f1_1" pos="69.24" speed="14.60"/>
                <vehicle id="f1_0" pos="291.94" speed="0.00"/>
            </lane>
        </edge>
    </timestep>
    <timestep time="38.00">
        <edge id="R10">
            <lane id="R10_0"/>
            <lane id="R10_1">
                <vehicle id="f0_1" pos="71.78" speed="14.31"/>
                <vehicle id="f0_0" pos="291.94" speed="0.00"/>
            </lane>
        </edge>
        <edge id="R30">
            <lane id="R30_0"/>
            <lane id="R30_1">
                <vehicle id="f1_1" pos="85.53" speed="16.29"/>
                <vehicle id="f1_0" pos="291.94" speed="0.00"/>
            </lane>
        </edge>
    </timestep>
    <timestep time="39.00">
        <edge id="R10">
            <lane id="R10_0"/>
            <lane id="R10_1">
                <vehicle id="f0_1" pos="88.13" speed="16.35"/>
                <vehicle id="f0_0" pos="291.94" speed="0.00"/>
            </lane>
        </edge>
        <edge id="R30">
            <lane id="R30_0"/>
            <lane id="R30_1">
                <vehicle id="f1_1" pos="103.72" speed="18.19"/>
                <vehicle id="f1_0" pos="291.94" speed="0.00"/>
            </lane>
        </edge>
    </timestep>
    <timestep time="40.00">
        <edge id="R10">
            <lane id="R10_0"/>
            <lane id="R10_1">
                <vehicle id="f0_1" pos="105.88" speed="17.75"/>
                <vehicle id="f0_0" pos="291.94" speed="0.00"/>
            </lane>
        </edge>
        <edge id="R30">
            <lane id="R30_0"/>
            <lane id="R30_1">
                <vehicle id="f1_1" pos="123.38" speed="19.66"/>
                <vehicle id="f1_0" pos="291.94" speed="0.00"/>
            </lane>
        </edge>
    </timestep>
    <timestep time="41.00">
        <edge id="R10">
            <lane id="R10_0"/>
            <lane id="R10_1">
                <vehicle id="f0_1" pos="124.90" speed="19.02"/>
                <vehicle id="f0_0" pos="291.94" speed="0.00"/>
            </lane>
        </edge>
        <edge id="R30">
            <lane id="R30_0"/>
            <lane id="R30_1">
                <vehicle id="f1_1" pos="144.12" speed="20.74"/>
                <vehicle id="f1_0" pos="291.94" speed="0.00"/>
            </lane>
        </edge>
    </timestep>
    <timestep time="42.00">
        <edge id="R10">
            <lane id="R10_0"/>
            <lane id="R10_1">
                <vehicle id="f0_1" pos="144.93" speed="20.03"/>
                <vehicle id="f0_0" pos="291.94" speed="0.00"/>
            </lane>
        </edge>
        <edge id="R30">
            <lane id="R30_0"/>
            <lane id="R30_1">
                <vehicle id="f1_1" pos="166.32" speed="22.21"/>
                <vehicle id="f1_0" pos="291.94" speed="0.00"/>
            </lane>
        </edge>
    </timestep>
    <timestep time="43.00">
        <edge id="R10">
            <lane id="R10_0"/>
            <lane id="R10_1">
                <vehicle id="f0_1" pos="166.19" speed="21.26"/>
                <vehicle id="f0_0" pos="291.94" speed="0.00"/>
            </lane>
        </edge>
        <edge id="R30">
            <lane id="R30_0"/>
            <lane id="R30_1">
                <vehicle id="f1_1" pos="189.91" speed="23.58"/>
                <vehicle id="f1_0" pos="291.94" speed="0.00"/>
            </lane>
        </edge>
    </timestep>
    <timestep time="44.00">
        <edge id="R10">
            <lane id="R10_0"/>
            <lane id="R10_1">
                <vehicle id="f0_1" pos="188.59" speed="22.39"/>
                <vehicle id="f0_0" pos="291.94" speed="0.00"/>
            </lane>
        </edge>
        <edge id="R30">
            <lane id="R30_0"/>
            <lane id="R30_1">
                <vehicle id="f1_1" pos="214.33" speed="24.42"/>
                <vehicle id="f1_0" pos="291.94" speed="0.00"/>
            </lane>
        </edge>
    </timestep>
    <timestep time="45.00">
        <edge id="R10">
            <lane id="R10_0"/>
            <lane id="R10_1">
                <vehicle id="f0_1" pos="212.14" speed="23.55"/>
                <vehicle id="f0_0" pos="291.94" speed="0.00"/>
            </lane>
        </edge>
        <edge id="R30">
            <lane id="R30_0"/>
            <lane id="R30_1">
                <vehicle id="f1_1" pos="234.54" speed="20.22"/>
                <vehicle id="f1_0" pos="291.94" speed="0.00"/>
            </lane>
        </edge>
    </timestep>
    <timestep time="46.00">
        <edge id="R10">
            <lane id="R10_0"/>
            <lane id="R10_1">
                <vehicle id="f0_1" pos="233.11" speed="20.97"/>
                <vehicle id="f0_0" pos="291.94" speed="0.00"/>
            </lane>
        </edge>
        <edge id="R30">
            <lane id="R30_0"/>
            <lane id="R30_1">
                <vehicle id="f1_1" pos="251.33" speed="16.78"/>
                <vehicle id="f1_0" pos="291.94" speed="0.00"/>
            </lane>
        </edge>
    </timestep>
    <timestep time="47.00">
        <edge id="R10">
            <lane id="R10_0"/>
            <lane id="R10_1">
                <vehicle id="f0_1" pos="249.61" speed="16.51"/>
                <vehicle id="f0_0" pos="291.94" speed="0.00"/>
            </lane>
        </edge>
        <edge id="R30">
            <lane id="R30_0"/>
            <lane id="R30_1">
                <vehicle id="f1_1" pos="264.51" speed="13.18"/>
                <vehicle id="f1_0" pos="291.94" speed="0.00"/>
            </lane>
        </edge>
    </timestep>
    <timestep time="48.00">
        <edge id="R10">
            <lane id="R10_0"/>
            <lane id="R10_1">
                <vehicle id="f0_1" pos="263.02" speed="13.41"/>
                <vehicle id="f0_0" pos="291.94" speed="0.00"/>
            </lane>
        </edge>
        <edge id="R30">
            <lane id="R30_0"/>
            <lane id="R30_1">
                <vehicle id="f1_1" pos="273.65" speed="9.15"/>
                <vehicle id="f1_0" pos="291.94" speed="0.00"/>
            </lane>
        </edge>
    </timestep>
    <timestep time="49.00">
        <edge id="R10">
            <lane id="R10_0"/>
            <lane id="R10_1">
                <vehicle id="f0_1" pos="272.81" speed="9.79"/>
                <vehicle id="f0_0" pos="291.94" speed="0.00"/>
            </lane>
        </edge>
        <edge id="R30">
            <lane id="R30_0"/>
            <lane id="R30_1">
                <vehicle id="f1_1" pos="279.18" speed="5.53"/>
                <vehicle id="f1_0" pos="291.94" speed="0.00"/>
            </lane>
        </edge>
    </timestep>
    <timestep time="50.00">
        <edge id="R10">
            <lane id="R10_0"/>
            <lane id="R10_1">
                <vehicle id="f0_1" pos="278.81" speed="6.00"/>
                <vehicle id="f0_0" pos="291.94" speed="0.00"/>
            </lane>
        </edge>
        <edge id="R30">
            <lane id="R30_0"/>
            <lane id="R30_1">
                <vehicle id="f1_1" pos="281.85" speed="2.67"/>
                <vehicle id="f1_0" pos="291.94" speed="0.00"/>
            </lane>
        </edge>
    </timestep>
    <timestep time="51.00">
        <edge id="R10">
            <lane id="R10_0"/>
            <lane id="R10_1">
                <vehicle id="f0_1" pos="281.73" speed="2.91"/>
                <vehicle id="f0_0" pos="291.94" speed="0.00"/>
            </lane>
        </edge>
        <edge id="R30">
            <lane id="R30_0"/>
            <lane id="R30_1">
                <vehicle id="f1_1" pos="283.37" speed="1.53"/>
                <vehicle id="f1_0" pos="291.94" speed="0.00"/>
            </lane>
        </edge>
    </timestep>
    <timestep time="52.00">
        <edge id="R10">
            <lane id="R10_0"/>
            <lane id="R10_1">
                <vehicle id="f0_1" pos="282.84" speed="1.11"/>
                <vehicle id="f0_0" pos="291.94" speed="0.00"/>
            </lane>
        </edge>
        <edge id="R30">
            <lane id="R30_0"/>
            <lane id="R30_1">
                <vehicle id="f1_1" pos="284.11" speed="0.73"/>
                <vehicle id="f1_0" pos="291.94" speed="0.00"/>
            </lane>
        </edge>
    </timestep>
    <timestep time="53.00">
        <edge id="R10">
            <lane id="R10_0"/>
            <lane id="R10_1">
                <vehicle id="f0_1" pos="284.11" speed="1.27"/>
                <vehicle id="f0_0" pos="291.94" speed="0.00"/>
            </lane>
        </edge>
        <edge id="R30">
            <lane id="R30_0"/>
            <lane id="R30_1">
                <vehicle id="f1_1" pos="284.30" speed="0.20"/>
                <vehicle id="f1_0" pos="291.94" speed="0.00"/>
            </lane>
        </edge>
    </timestep>
    <timestep time="54.00">
        <edge id="R10">
            <lane id="R10_0"/>
            <lane id="R10_1">
                <vehicle id="f0_1" pos="284.38" speed="0.27"/>
                <vehicle id="f0_0" pos="291.94" speed="0.00"/>
            </lane>
        </edge>
        <edge id="R30">
            <lane id="R30_0"/>
            <lane id="R30_1">
                <vehicle id="f1_1" pos="284.39" speed="0.09"/>
                <vehicle id="f1_0" pos="291.94" speed="0.00"/>
            </lane>
        </edge>
    </timestep>
    <timestep time="55.00">
        <edge id="R10">
            <lane id="R10_0"/>
            <lane id="R10_1">
                <vehicle id="f0_1" pos="284.44" speed="0.06"/>
                <vehicle id="f0_0" pos="291.94" speed="0.00"/>
            </lane>
        </edge>
        <edge id="R30">
            <lane id="R30_0"/>
            <lane id="R30_1">
                <vehicle id="f1_1" pos="284.42" speed="0.03"/>
                <vehicle id="f1_0" pos="291.94" speed="0.00"/>
            </lane>
        </edge>
    </timestep>
    <timestep time="56.00">
        <edge id="R10">
            <lane id="R10_0"/>
            <lane id="R10_1">
                <vehicle id="f0_1" pos="284.44" speed="0.00"/>
                <vehicle id="f0_0" pos="291.94" speed="0.00"/>
            </lane>
        </edge>
        <edge id="R30">
            <lane id="R30_0"/>
            <lane id="R30_1">
                <vehicle id="f1_1" pos="284.43" speed="0.01"/>
                <vehicle id="f1_0" pos="291.94" speed="0.00"/>
            </lane>
        </edge>
    </timestep>
    <timestep time="57.00">
        <edge id="R10">
            <lane id="R10_0"/>
            <lane id="R10_1">
                <vehicle id="f0_1" pos="284.44" speed="0.00"/>
                <vehicle id="f0_0" pos="291.94" speed="0.00"/>
            </lane>
        </edge>
        <edge id="R30">
            <lane id="R30_0"/>
            <lane id="R30_1">
                <vehicle id="f1_1" pos="284.43" speed="0.00"/>
                <vehicle id="f1_0" pos="291.94" speed="0.00"/>
            </lane>
        </edge>
    </timestep>
    <timestep time="58.00">
        <edge id="R10">
            <lane id="R10_0"/>
            <lane id="R10_1">
                <vehicle id="f0_1" pos="284.44" speed="0.00"/>
                <vehicle id="f0_0" pos="291.94" speed="0.00"/>
            </lane>
        </edge>
        <edge id="R30">
            <lane id="R30_0"/>
            <lane id="R30_1">
                <vehicle id="f1_1" pos="284.43" speed="0.00"/>
                <vehicle id="f1_0" pos="291.94" speed="0.00"/>
            </lane>
        </edge>
    </timestep>
    <timestep time="59.00">
        <edge id="R10">
            <lane id="R10_0"/>
            <lane id="R10_1">
                <vehicle id="f0_1" pos="284.44" speed="0.00"/>
                <vehicle id="f0_0" pos="291.94" speed="0.00"/>
            </lane>
        </edge>
        <edge id="R30">
            <lane id="R30_0"/>
            <lane id="R30_1">
                <vehicle id="f1_1" pos="284.43" speed="0.00"/>